Start File for LAMMPS 
4 atoms 
1 atom types 

0. 3.610000000000000 xlo xhi
0. 3.610000000000000 ylo yhi
0. 3.610000000000000 zlo zhi

Masses

  1 63.546000  # (Cu) 

Atoms

1 1 0.000000000000000 0.000000000000000 0.000000000000000
2 1 0.000000000000000 1.805000000000000 1.805000000000000
3 1 1.805000000000000 0.000000000000000 1.805000000000000
4 1 1.805000000000000 1.805000000000000 0.000000000000000

